
#(C) 2019 by FIZ Karlsruhe - Leibniz Institute for Information Infrastructure.  All rights reserved.
data_57598-ICSD
_database_code_ICSD 57598
_audit_creation_date 2003-10-01
_audit_update_record 2011-02-01
_chemical_name_systematic 'Aluminium cobalt (9/2)'
_chemical_formula_structural 'Al9 Co2'
_chemical_formula_sum 'Al9 Co2'
_chemical_name_structure_type Al9Co2
_exptl_crystal_density_diffrn 3.59
_publ_section_title 'The structure of Co2 Al9'
loop_
_citation_id
_citation_journal_full
_citation_year
_citation_journal_volume
_citation_page_first
_citation_page_last
_citation_journal_id_ASTM
primary 'Acta Crystallographica' 1950 3 19 24 ACCRA9
loop_
_publ_author_name
'Douglas, A.M.B.'
_cell_length_a 8.565(5)
_cell_length_b 6.290(5)
_cell_length_c 6.2130(5)
_cell_angle_alpha 90.
_cell_angle_beta 94.760(5)
_cell_angle_gamma 90.
_cell_volume 333.56
_cell_formula_units_Z 2
_symmetry_space_group_name_H-M 'P 1 21/a 1'
_symmetry_Int_Tables_number 14
_refine_ls_R_factor_all 0.15
loop_
_symmetry_equiv_pos_site_id
_symmetry_equiv_pos_as_xyz
1 'x+1/2, -y+1/2, z'
2 '-x, -y, -z'
3 '-x+1/2, y+1/2, -z'
4 'x, y, z'
loop_
_atom_type_symbol
_atom_type_oxidation_number
Al0+ 0
Co0+ 0
loop_
_atom_site_label
_atom_site_type_symbol
_atom_site_symmetry_multiplicity
_atom_site_Wyckoff_symbol
_atom_site_fract_x
_atom_site_fract_y
_atom_site_fract_z
_atom_site_B_iso_or_equiv
_atom_site_occupancy
_atom_site_attached_hydrogens
Al1 Al0+ 2 a 0 0 0 . 1. 0
Al2 Al0+ 4 e 0.2682(11) 0.9619(27) 0.4044(16) . 1. 0
Al3 Al0+ 4 e 0.2309(11) 0.2899(27) 0.0889(21) . 1. 0
Al4 Al0+ 4 e -.0014(13) 0.1931(26) 0.3891(16) . 1. 0
Al5 Al0+ 4 e 0.0417(13) 0.6148(25) 0.2159(21) . 1. 0
Co1 Co0+ 4 e 0.3335(6) 0.6149(11) 0.2646(7) . 1. 0
#End of TTdata_57598-ICSD