
#(C) 2019 by FIZ Karlsruhe - Leibniz Institute for Information Infrastructure.  All rights reserved.
data_151165-ICSD
_database_code_ICSD 151165
_audit_creation_date 2006-10-01
_chemical_name_systematic 'Cobalt nickel aluminium (2/1/9) - Y2'
_chemical_formula_structural 'Co2 Ni Al9'
_chemical_formula_sum 'Al9 Co2 Ni1'
_exptl_crystal_density_diffrn 3.98
_publ_section_title 'The structure of the ternary phase Co2 Ni Al9 (Y2)'
loop_
_citation_id
_citation_journal_full
_citation_year
_citation_journal_volume
_citation_page_first
_citation_page_last
_citation_journal_id_ASTM
primary 'Zeitschrift fuer Kristallographie' 1998 213 364 368 ZEKRDZ
loop_
_publ_author_name
'Grin', Yu. (Hrin', Yu.'
' Grin, Yu.'
' Hrin, Yu.)'
'Peters, K.'
'Burkhardt, U.'
'Gotzmann, K.'
'Ellner, M.'
_cell_length_a 12.0646(7)
_cell_length_b 7.5553(7)
_cell_length_c 15.353(1)
_cell_angle_alpha 90.
_cell_angle_beta 90.
_cell_angle_gamma 90.
_cell_volume 1399.45
_cell_formula_units_Z 8
_symmetry_space_group_name_H-M 'I m m m'
_symmetry_Int_Tables_number 71
_refine_ls_R_factor_all 0.058
loop_
_symmetry_equiv_pos_site_id
_symmetry_equiv_pos_as_xyz
1 'x, y, -z'
2 'x, -y, z'
3 '-x, y, z'
4 '-x, -y, -z'
5 '-x, -y, z'
6 '-x, y, -z'
7 'x, -y, -z'
8 'x, y, z'
9 'x+1/2, y+1/2, -z+1/2'
10 'x+1/2, -y+1/2, z+1/2'
11 '-x+1/2, y+1/2, z+1/2'
12 '-x+1/2, -y+1/2, -z+1/2'
13 '-x+1/2, -y+1/2, z+1/2'
14 '-x+1/2, y+1/2, -z+1/2'
15 'x+1/2, -y+1/2, -z+1/2'
16 'x+1/2, y+1/2, z+1/2'
loop_
_atom_type_symbol
_atom_type_oxidation_number
Co0+ 0
Ni0+ 0
Co0+ 0
Ni0+ 0
Co0+ 0
Ni0+ 0
Co0+ 0
Ni0+ 0
Al0+ 0
loop_
_atom_site_label
_atom_site_type_symbol
_atom_site_symmetry_multiplicity
_atom_site_Wyckoff_symbol
_atom_site_fract_x
_atom_site_fract_y
_atom_site_fract_z
_atom_site_B_iso_or_equiv
_atom_site_occupancy
_atom_site_attached_hydrogens
Co1 Co0+ 4 i 0 0 0.3028(8) 1.1(2) 0.667 0
Ni1 Ni0+ 4 i 0 0 0.3028(8) 1.1(2) 0.333 0
Co2 Co0+ 4 g 0 0.183(1) 0 1.3(2) 0.667 0
Ni2 Ni0+ 4 g 0 0.183(1) 0 1.3(2) 0.333 0
Co3 Co0+ 8 n 0.3284(5) 0.2081(9) 0 1.0(1) 0.667 0
Ni3 Ni0+ 8 n 0.3284(5) 0.2081(9) 0 1.0(1) 0.333 0
Co4 Co0+ 8 m 0.3110(4) 0 0.2892(5) 0.9(1) 0.667 0
Ni4 Ni0+ 8 m 0.3110(4) 0 0.2892(5) 0.9(1) 0.333 0
Al1 Al0+ 2 d 0.5 0 0.5 0.6(4) 1. 0
Al2 Al0+ 2 b 0 0.5 0.5 0.9(6) 1. 0
Al3 Al0+ 4 e 0.170(2) 0 0 0.6(4) 1. 0
Al4 Al0+ 4 j 0.5 0 0.264(1) 1.8(3) 1. 0
Al5 Al0+ 4 i 0 0 0.138(2) 1.2(4) 1. 0
Al6 Al0+ 8 l 0 0.237(2) 0.4038(9) 1.4(2) 1. 0
Al7 Al0+ 8 m 0.162(1) 0 0.4122(8) 1.6(2) 1. 0
Al8 Al0+ 8 m 0.330(1) 0 0.1287(9) 1.1(2) 1. 0
Al9 Al0+ 16 o 0.6528(9) 0.197(1) 0.4097(6) 1.6(2) 1. 0
Al10 Al0+ 16 o 0.8519(7) 0.191(1) 0.2564(5) 1.6(2) 1. 0
loop_
_atom_site_aniso_label
_atom_site_aniso_type_symbol
_atom_site_aniso_B_11
_atom_site_aniso_B_22
_atom_site_aniso_B_33
_atom_site_aniso_B_12
_atom_site_aniso_B_13
_atom_site_aniso_B_23
Co1 Co0+ 0.8(3) 0.7(4) 1.7(5) 0. 0. 0.
Ni1 Ni0+ 0.8(3) 0.7(4) 1.7(5) 0. 0. 0.
Co2 Co0+ 1.4(4) 0.7(3) 1.6(5) 0. 0. 0.
Ni2 Ni0+ 1.4(4) 0.7(3) 1.6(5) 0. 0. 0.
Co3 Co0+ 0.7(2) 1.5(3) 0.7(2) -0.3(2) 0. 0.
Ni3 Ni0+ 0.7(2) 1.5(3) 0.7(2) -0.3(2) 0. 0.
Co4 Co0+ 1.0(2) 1.0(2) 0.7(2) 0. 0.1(2) 0.
Ni4 Ni0+ 1.0(2) 1.0(2) 0.7(2) 0. 0.1(2) 0.
#End of TTdata_151165-ICSD