
#(C) 2019 by FIZ Karlsruhe - Leibniz Institute for Information Infrastructure.  All rights reserved.
data_104638-ICSD
_database_code_ICSD 104638
_audit_creation_date 2004-10-01
_audit_update_record 2006-10-01
_chemical_name_systematic 'Aluminum cobalt (13/4)'
_chemical_formula_structural 'Al13 Co4'
_chemical_formula_sum 'Al13 Co4'
_exptl_crystal_density_diffrn 4.02
_publ_section_title 'Crystal structure of orthorhombic Co4 Al13'
loop_
_citation_id
_citation_journal_full
_citation_year
_citation_journal_volume
_citation_page_first
_citation_page_last
_citation_journal_id_ASTM
primary 'Journal of Alloys and Compounds' 1994 206 243 247 JALCEU
loop_
_publ_author_name
'Grin', Yu. (Hrin', Yu.'
' Grin, Yu.'
' Hrin, Yu.)'
'Burkhardt, U.'
'Ellner, M.'
'Peters, K.'
_cell_length_a 8.158(1)
_cell_length_b 12.342(1)
_cell_length_c 14.452(2)
_cell_angle_alpha 90.
_cell_angle_beta 90.
_cell_angle_gamma 90.
_cell_volume 1455.11
_cell_formula_units_Z 6
_symmetry_space_group_name_H-M 'P m n 21'
_symmetry_Int_Tables_number 31
_refine_ls_R_factor_all 0.074
loop_
_symmetry_equiv_pos_site_id
_symmetry_equiv_pos_as_xyz
1 'x+1/2, -y, z+1/2'
2 '-x+1/2, -y, z+1/2'
3 '-x, y, z'
4 'x, y, z'
loop_
_atom_type_symbol
_atom_type_oxidation_number
Al0+ 0
Co0+ 0
loop_
_atom_site_label
_atom_site_type_symbol
_atom_site_symmetry_multiplicity
_atom_site_Wyckoff_symbol
_atom_site_fract_x
_atom_site_fract_y
_atom_site_fract_z
_atom_site_B_iso_or_equiv
_atom_site_occupancy
_atom_site_attached_hydrogens
Al1 Al0+ 2 a 0 0.9945(13) 0.8151(11) 1.7(3) 1. 0
Al2 Al0+ 2 a 0 0.0914(14) 0.9569(10) 1.5(3) 1. 0
Al3 Al0+ 2 a 0 0.9053(14) 0.6226(9) 0.8(3) 1. 0
Al4 Al0+ 2 a 0 0.9085(12) 0.4431(8) 0.4(2) 1. 0
Al5 Al0+ 2 a 0 0.1394(11) 0.6728(10) 1.1(3) 1. 0
Al6 Al0+ 2 a 0 0.8113(14) 0.1564(10) 1.4(3) 1. 0
Al7 Al0+ 2 a 0 0.8092(13) 0.8360(12) 2.0(4) 1. 0
Al8 Al0+ 2 a 0 0.252(2) 0.414(2) 1.0(2) 1. 0
Al9 Al0+ 2 a 0 0.407(2) 0.8520(9) 1.3(3) 1. 0
Al10 Al0+ 2 a 0 0.401(2) 0.1491(11) 2.1(3) 1. 0
Al11 Al0+ 2 a 0 0.6837(13) 0.6749(11) 1.7(4) 1. 0
Al12 Al0+ 2 a 0 0.590(2) 0.3960(8) 1.2(3) 1. 0
Al13 Al0+ 2 a 0 0.5271(13) 0.0054(12) 1.6(4) 1. 0
Al14 Al0+ 2 a 0 0.5986(14) 0.2149(11) 2.1(3) 1. 0
Al15 Al0+ 2 a 0 0.7111(13) 0.9668(13) 2.6(4) 1. 0
Al16 Al0+ 2 a 0 0.1047(14) 0.2380(11) 1.9(3) 1. 0
Al17 Al0+ 2 a 0 0.4179(12) 0.5881(10) 1.1(3) 1. 0
Al18 Al0+ 4 b 0.2135(12) 0.2138(7) 0.0996(6) 0.7(2) 1. 0
Al19 Al0+ 4 b 0.2138(11) 0.9020(8) 0.2831(6) 0.7(2) 1. 0
Al20 Al0+ 4 b 0.2401(10) 0.0829(9) 0.4088(6) 1.0(2) 1. 0
Al21 Al0+ 4 b 0.2534(10) 0.2550(12) 0.9172(13) 1.1(2) 1. 0
Al22 Al0+ 4 b 0.2251(12) 0.9810(7) 0.0935(7) 0.9(2) 1. 0
Al23 Al0+ 4 b 0.2214(14) 0.2229(8) 0.5500(7) 1.7(2) 1. 0
Al24 Al0+ 4 b 0.2259(11) 0.5885(9) 0.5422(6) 0.9(2) 1. 0
Al25 Al0+ 4 b 0.2244(12) 0.2946(7) 0.7352(6) 0.7(2) 1. 0
Al26 Al0+ 4 b 0.2291(12) 0.4220(8) 0.4252(6) 1.1(2) 1. 0
Al27 Al0+ 4 b 0.2133(11) 0.5174(7) 0.7338(7) 1.0(2) 1. 0
Al28 Al0+ 4 b 0.2319(13) 0.2763(8) 0.2849(7) 1.2(2) 1. 0
Co1 Co0+ 2 a 0 0.8978(6) 0. 0.93(15) 1. 0
Co2 Co0+ 2 a 0 0.0901(6) 0.5114(4) 0.51(10) 1. 0
Co3 Co0+ 2 a 0 0.1977(5) 0.8250(5) 0.94(13) 1. 0
Co4 Co0+ 2 a 0 0.7720(5) 0.3167(5) 0.86(13) 1. 0
Co5 Co0+ 2 a 0 0.5986(6) 0.8248(4) 0.81(11) 1. 0
Co6 Co0+ 2 a 0 0.4119(6) 0.3137(4) 0.95(11) 1. 0
Co7 Co0+ 2 a 0 0.7309(5) 0.5180(4) 0.42(12) 1. 0
Co8 Co0+ 2 a 0 0.2877(5) 0.0076(5) 0.96(14) 1. 0
Co9 Co0+ 4 b 0.2257(5) 0.9099(4) 0.7346(3) 1.23(9) 1. 0
Co10 Co0+ 4 b 0.2181(5) 0.5969(4) 0.0984(3) 0.86(8) 1. 0
#End of TTdata_104638-ICSD