
#(C) 2019 by FIZ Karlsruhe - Leibniz Institute for Information Infrastructure.  All rights reserved.
data_244200-ICSD
_database_code_ICSD 244200
_audit_creation_date 2018-02-01
_chemical_name_systematic
'Aluminium cobalt nickel (56/10.33/10.33) - nickel not refined separately'
_chemical_formula_structural 'Al56 Co20.67'
_chemical_formula_sum 'Al56 Co20.67'
_exptl_crystal_density_diffrn 4.43
_cell_measurement_temperature 298.
_publ_section_title

;
Structure determination of a pseudo-decagonal quasicrystal approximant by the
strong-reflections approach and rotation electron diffraction
;
loop_
_citation_id
_citation_journal_full
_citation_year
_citation_journal_volume
_citation_page_first
_citation_page_last
_citation_journal_id_ASTM
primary 'Journal of Applied Crystallography' 2016 49 433 441 JACGAR
loop_
_publ_author_name
'Singh, Devinder'
'Yun, Yifeng'
'Wan, Wei'
'Grushko, Benjamin'
'Zou, Xiaodong'
'Hovmoeller, Sven'
_cell_length_a 37.701
_cell_length_b 39.71
_cell_length_c 4.103
_cell_angle_alpha 90.
_cell_angle_beta 90.
_cell_angle_gamma 90.
_cell_volume 6142.62
_cell_formula_units_Z 6
_symmetry_space_group_name_H-M 'P n a m'
_symmetry_Int_Tables_number 62
_refine_ls_R_factor_all 0.0361
loop_
_symmetry_equiv_pos_site_id
_symmetry_equiv_pos_as_xyz
1 'x+1/2, -y+1/2, z'
2 'x, y, -z+1/2'
3 '-x+1/2, y+1/2, z+1/2'
4 '-x, -y, -z'
5 '-x+1/2, y+1/2, -z'
6 '-x, -y, z+1/2'
7 'x+1/2, -y+1/2, -z+1/2'
8 'x, y, z'
loop_
_atom_type_symbol
_atom_type_oxidation_number
Co0+ 0
Al0+ 0
loop_
_atom_site_label
_atom_site_type_symbol
_atom_site_symmetry_multiplicity
_atom_site_Wyckoff_symbol
_atom_site_fract_x
_atom_site_fract_y
_atom_site_fract_z
_atom_site_B_iso_or_equiv
_atom_site_occupancy
_atom_site_attached_hydrogens
Co1 Co0+ 4 c 0.388239 0.172689 0.25 0.02533 1. 0
Co2 Co0+ 4 c 0.388239 0.672689 0.25 0.02533 1. 0
Co3 Co0+ 4 c 0.696479 0.077319 0.25 0.02533 1. 0
Co4 Co0+ 4 c 0.696479 0.577319 0.25 0.02533 1. 0
Co5 Co0+ 4 c 0.8883 0.017991 0.25 0.02533 1. 0
Co6 Co0+ 4 c 0.8883 0.517991 0.25 0.02533 1. 0
Co7 Co0+ 4 c 0.196807 0.232052 0.25 0.02533 1. 0
Co8 Co0+ 4 c 0.196807 0.732052 0.25 0.02533 1. 0
Co9 Co0+ 4 c 0.19772 0.112893 0.25 0.02533 1. 0
Co10 Co0+ 4 c 0.079736 0.077127 0.25 0.02533 1. 0
Co11 Co0+ 4 c 0.079736 0.577127 0.25 0.02533 1. 0
Co12 Co0+ 4 c 0.579507 0.231426 0.25 0.02533 1. 0
Co13 Co0+ 4 c 0.579507 0.731426 0.25 0.02533 1. 0
Co14 Co0+ 4 c 0.505032 0.01836 0.25 0.02533 1. 0
Co15 Co0+ 4 c 0.505032 0.51836 0.25 0.02533 1. 0
Co16 Co0+ 4 c 0.888495 0.13696 0.25 0.02533 1. 0
Co17 Co0+ 4 c 0.888495 0.63696 0.25 0.02533 1. 0
Co18 Co0+ 4 c 0.004377 0.172823 0.25 0.02533 1. 0
Co19 Co0+ 4 c 0.004377 0.672823 0.25 0.02533 1. 0
Co20 Co0+ 4 c 0.506885 0.136536 0.25 0.02533 1. 0
Co21 Co0+ 4 c 0.506885 0.636536 0.25 0.02533 1. 0
Co22 Co0+ 4 c 0.578968 0.114133 0.25 0.02533 1. 0
Co23 Co0+ 4 c 0.578968 0.614133 0.25 0.02533 1. 0
Co24 Co0+ 4 c 0.270515 0.020163 0.25 0.02533 1. 0
Co25 Co0+ 4 c 0.268815 0.132597 0.25 0.02533 1. 0
Co26 Co0+ 4 c 0.310376 0.076846 0.25 0.02533 1. 0
Co27 Co0+ 4 c 0.771216 0.173355 0.25 0.02533 1. 0
Co28 Co0+ 4 c 0.771216 0.673355 0.25 0.02533 1. 0
Co29 Co0+ 4 c 0.889161 0.207369 0.249999 0.02533 1. 0
Co30 Co0+ 4 c 0.889161 0.707369 0.249999 0.02533 1. 0
Co31 Co0+ 4 c 0.200307 0.043174 0.25 0.02533 1. 0
Al1 Al0+ 4 c 0.19772 0.612893 0.25 0.02533 1. 0
Al2 Al0+ 4 c 0.527235 0.077338 0.25 0.02533 1. 0
Al3 Al0+ 4 c 0.527235 0.577338 0.25 0.02533 1. 0
Al4 Al0+ 4 c 0.835581 0.172822 0.25 0.02533 1. 0
Al5 Al0+ 4 c 0.835581 0.672822 0.25 0.02533 1. 0
Al6 Al0+ 4 c 0.026865 0.232161 0.25 0.02533 1. 0
Al7 Al0+ 4 c 0.026865 0.732161 0.25 0.02533 1. 0
Al8 Al0+ 4 c 0.219493 0.172703 0.25 0.02533 1. 0
Al9 Al0+ 4 c 0.219493 0.672703 0.25 0.02533 1. 0
Al10 Al0+ 4 c 0.335559 0.018378 0.25 0.02533 1. 0
Al11 Al0+ 4 c 0.335559 0.518378 0.25 0.02533 1. 0
Al12 Al0+ 4 c 0.020798 0.045569 0.25 0.02533 1. 0
Al13 Al0+ 4 c 0.020798 0.545569 0.25 0.02533 1. 0
Al14 Al0+ 4 c 0.715982 0.137802 0.25 0.02533 1. 0
Al15 Al0+ 4 c 0.715982 0.637802 0.25 0.02533 1. 0
Al16 Al0+ 4 c 0.025638 0.112435 0.249999 0.02533 1. 0
Al17 Al0+ 4 c 0.025638 0.612435 0.249999 0.02533 1. 0
Al18 Al0+ 4 c 0.718716 0.017904 0.25 0.02533 1. 0
Al19 Al0+ 4 c 0.718716 0.517904 0.25 0.02533 1. 0
Al20 Al0+ 4 c 0.270515 0.520163 0.25 0.02533 1. 0
Al21 Al0+ 4 c 0.811284 0.230586 0.25 0.02533 1. 0
Al22 Al0+ 4 c 0.811284 0.730586 0.25 0.02533 1. 0
Al23 Al0+ 4 c 0.268815 0.632597 0.25 0.02533 1. 0
Al24 Al0+ 4 c 0.913902 0.077019 0.25 0.02533 1. 0
Al25 Al0+ 4 c 0.913902 0.577019 0.25 0.02533 1. 0
Al26 Al0+ 4 c 0.310376 0.576846 0.25 0.02533 1. 0
Al27 Al0+ 4 c 0.335359 0.136406 0.25 0.02533 1. 0
Al28 Al0+ 4 c 0.335359 0.636406 0.25 0.02533 1. 0
Al29 Al0+ 4 c 0.144513 0.076645 0.25 0.02533 1. 0
Al30 Al0+ 4 c 0.144513 0.576645 0.25 0.02533 1. 0
Al31 Al0+ 4 c 0.41307 0.231245 0.25 0.02533 1. 0
Al32 Al0+ 4 c 0.41307 0.731245 0.25 0.02533 1. 0
Al33 Al0+ 4 c 0.814049 0.115371 0.25 0.02533 1. 0
Al34 Al0+ 4 c 0.814049 0.615371 0.25 0.02533 1. 0
Al35 Al0+ 4 c 0.40874 0.113124 0.25 0.02533 1. 0
Al36 Al0+ 4 c 0.40874 0.613124 0.25 0.02533 1. 0
Al37 Al0+ 4 c 0.200307 0.543174 0.25 0.02533 1. 0
Al38 Al0+ 4 c 0.577905 0.0407 0.25 0.02533 1. 0
Al39 Al0+ 4 c 0.577905 0.5407 0.25 0.02533 1. 0
Al40 Al0+ 4 c 0.645103 0.229784 0.25 0.02533 1. 0
Al41 Al0+ 4 c 0.645103 0.729784 0.25 0.02533 1. 0
Al42 Al0+ 4 c 0.333865 0.207236 0.25 0.02533 1. 0
Al43 Al0+ 4 c 0.333865 0.707236 0.25 0.02533 1. 0
Al44 Al0+ 4 c 0.646832 0.117926 0.25 0.02533 1. 0
Al45 Al0+ 4 c 0.646832 0.617926 0.25 0.02533 1. 0
Al46 Al0+ 4 c 0.708093 0.203321 0.25 0.02533 1. 0
Al47 Al0+ 4 c 0.708093 0.703321 0.25 0.02533 1. 0
Al48 Al0+ 4 c 0.612293 0.173373 0.25 0.02533 1. 0
Al49 Al0+ 4 c 0.612293 0.673373 0.25 0.02533 1. 0
Al50 Al0+ 4 c 0.511547 0.20709 0.25 0.02533 1. 0
Al51 Al0+ 4 c 0.511547 0.70709 0.25 0.02533 1. 0
Al52 Al0+ 4 c 0.393619 0.04816 0.25 0.02533 1. 0
Al53 Al0+ 4 c 0.393619 0.54816 0.25 0.02533 1. 0
Al54 Al0+ 4 c 0.651927 0.030672 0.25 0.02533 1. 0
Al55 Al0+ 4 c 0.651927 0.530672 0.25 0.02533 1. 0
Al56 Al0+ 4 c 0.453552 0.175 0.25 0.02533 1. 0
Al57 Al0+ 4 c 0.453552 0.675 0.25 0.02533 1. 0
Al58 Al0+ 4 c 0.820934 0.040951 0.25 0.02533 1. 0
Al59 Al0+ 4 c 0.820934 0.540951 0.25 0.02533 1. 0
Al60 Al0+ 4 c 0.955334 0.025269 0.25 0.02533 1. 0
Al61 Al0+ 4 c 0.955334 0.525269 0.25 0.02533 1. 0
Al62 Al0+ 4 c 0.958503 0.124304 0.25 0.02533 1. 0
Al63 Al0+ 4 c 0.958503 0.624304 0.25 0.02533 1. 0
Al64 Al0+ 4 c 0.11272 0.020215 0.25 0.02533 1. 0
Al65 Al0+ 4 c 0.11272 0.520215 0.25 0.02533 1. 0
Al66 Al0+ 4 c 0.075904 0.197154 0.25 0.02533 1. 0
Al67 Al0+ 4 c 0.075904 0.697154 0.25 0.02533 1. 0
Al68 Al0+ 4 c 0.961812 0.226045 0.249999 0.02533 1. 0
Al69 Al0+ 4 c 0.961812 0.726045 0.249999 0.02533 1. 0
Al70 Al0+ 4 c 0.463635 0.075526 0.25 0.02533 1. 0
Al71 Al0+ 4 c 0.463635 0.575526 0.25 0.02533 1. 0
Al72 Al0+ 4 c 0.11509 0.132269 0.25 0.02533 1. 0
Al73 Al0+ 4 c 0.11509 0.632269 0.25 0.02533 1. 0
Al74 Al0+ 4 c 0.265807 0.215791 0.25 0.02533 1. 0
Al75 Al0+ 4 c 0.265807 0.715791 0.25 0.02533 1. 0
Al76 Al0+ 4 c 0.762391 0.067487 0.25 0.02533 1. 0
Al77 Al0+ 4 c 0.762391 0.567487 0.25 0.02533 1. 0
Al78 Al0+ 4 c 0.15833 0.176234 0.25 0.02533 1. 0
Al79 Al0+ 4 c 0.15833 0.676234 0.25 0.02533 1. 0
Al80 Al0+ 4 c 0.555929 0.172861 0.25 0.02533 1. 0
Al81 Al0+ 4 c 0.555929 0.672861 0.25 0.02533 1. 0
Al82 Al0+ 4 c 0.248802 0.077076 0.25 0.02533 1. 0
Al83 Al0+ 4 c 0.125625 0.217798 0.25 0.02533 1. 0
Al84 Al0+ 4 c 0.125625 0.717798 0.25 0.02533 1. 0
#End of TTdata_244200-ICSD