
#(C) 2019 by FIZ Karlsruhe - Leibniz Institute for Information Infrastructure, and the U.S. Secretary of
#Commerce on behalf of the United States.  All rights reserved.
data_608787-ICSD
_database_code_ICSD 608787
_audit_creation_date 2012-02-01
_audit_update_record 2018-08-01
_chemical_name_systematic 'Nickel aluminide (1/3)'
_chemical_formula_structural 'Ni Al3'
_chemical_formula_sum 'Al3 Ni1'
_chemical_name_structure_type In3Ir
_exptl_crystal_density_diffrn 3.98
_publ_section_title 'Phase diagram of Aluminium-Barium-Nickel system'
_publ_section_comment 'Cell and Type only determined'
loop_
_citation_id
_citation_journal_full
_citation_year
_citation_journal_volume
_citation_page_first
_citation_page_last
_citation_journal_id_ASTM
primary 'Doklady Akademii Nauk Tadzhikskoi SSR' 1987 30 169 172 DANTAL
loop_
_publ_author_name
'Ainutdinov, F.A.'
'Khairidinov, S.K.'
'Vakhobov, A.V.'
_cell_length_a 6.598
_cell_length_b 7.352
_cell_length_c 4.802
_cell_angle_alpha 90.
_cell_angle_beta 90.
_cell_angle_gamma 90.
_cell_volume 232.94
_cell_formula_units_Z 4
_symmetry_space_group_name_H-M 'P n m a'
_symmetry_Int_Tables_number 62
loop_
_symmetry_equiv_pos_site_id
_symmetry_equiv_pos_as_xyz
1 'x+1/2, y, -z+1/2'
2 'x, -y+1/2, z'
3 '-x+1/2, y+1/2, z+1/2'
4 '-x, -y, -z'
5 '-x+1/2, -y, z+1/2'
6 '-x, y+1/2, -z'
7 'x+1/2, -y+1/2, -z+1/2'
8 'x, y, z'
loop_
_atom_type_symbol
_atom_type_oxidation_number
Al0+ 0
Ni0+ 0
loop_
_atom_site_label
_atom_site_type_symbol
_atom_site_symmetry_multiplicity
_atom_site_Wyckoff_symbol
_atom_site_fract_x
_atom_site_fract_y
_atom_site_fract_z
_atom_site_B_iso_or_equiv
_atom_site_occupancy
_atom_site_attached_hydrogens
Al1 Al0+ 8 d 0.174 0.053 0.144 . 1. 0
Al2 Al0+ 4 c 0.011 0.25 0.585 . 1. 0
Ni1 Ni0+ 4 c 0.369 0.25 0.445 . 1. 0
#End of TTdata_608787-ICSD